ITEM: TIMESTEP
0
ITEM: NUMBER OF ATOMS
4
ITEM: BOX BOUNDS
0	4
0	4
0.1 0.1 
ITEM: ATOMS id type x y z vx vy vz
0	0	1.34532	1.786590.1	0.98066	-0.19572	0
1	0	2.75964	3.696940.1	0.999329	0.0366389	0
2	0	0.160306	3.831880.1	0.60884	-0.793293	0
3	0	1.26784	3.143320.1	0.89304	-0.449977	0
ITEM: TIMESTEP
5
ITEM: NUMBER OF ATOMS
4
ITEM: BOX BOUNDS
0	4
0	4
0.1 0.1 
ITEM: ATOMS id type x y z vx vy vz
0	0	1.84532	1.786590.1	0.748788	-0.66281	0
1	0	3.25964	3.696940.1	0.962221	0.272269	0
2	0	0.660306	3.831880.1	0.998153	0.0607519	0
3	0	1.76784	3.143320.1	0.597658	0.801751	0
ITEM: TIMESTEP
10
ITEM: NUMBER OF ATOMS
4
ITEM: BOX BOUNDS
0	4
0	4
0.1 0.1 
ITEM: ATOMS id type x y z vx vy vz
0	0	2.34532	1.786590.1	0.995029	0.0995834	0
1	0	3.75964	3.696940.1	0.973605	-0.228239	0
2	0	1.16031	3.831880.1	0.95488	-0.296992	0
3	0	2.26784	3.143320.1	0.993673	-0.112315	0
ITEM: TIMESTEP
15
ITEM: NUMBER OF ATOMS
4
ITEM: BOX BOUNDS
0	4
0	4
0.1 0.1 
ITEM: ATOMS id type x y z vx vy vz
0	0	2.84532	1.786590.1	0.814108	0.580714	0
1	0	0.259644	3.696940.1	0.9697	0.244299	0
2	0	1.66031	3.831880.1	0.923366	0.383921	0
3	0	2.76784	3.143320.1	0.905825	-0.423652	0
ITEM: TIMESTEP
20
ITEM: NUMBER OF ATOMS
4
ITEM: BOX BOUNDS
0	4
0	4
0.1 0.1 
ITEM: ATOMS id type x y z vx vy vz
0	0	3.34532	1.786590.1	0.915169	-0.403071	0
1	0	0.759644	3.696940.1	0.951271	-0.308357	0
2	0	2.16031	3.831880.1	0.999627	-0.0273162	0
3	0	3.26784	3.143320.1	0.996444	-0.0842584	0
ITEM: TIMESTEP
25
ITEM: NUMBER OF ATOMS
4
ITEM: BOX BOUNDS
0	4
0	4
0.1 0.1 
ITEM: ATOMS id type x y z vx vy vz
0	0	3.84532	1.786590.1	0.82428	0.566182	0
1	0	1.25964	3.696940.1	0.95689	0.290449	0
2	0	2.66031	3.831880.1	0.896792	0.442453	0
3	0	3.76784	3.143320.1	0.981083	-0.193588	0
ITEM: TIMESTEP
30
ITEM: NUMBER OF ATOMS
4
ITEM: BOX BOUNDS
0	4
0	4
0.1 0.1 
ITEM: ATOMS id type x y z vx vy vz
0	0	0.345324	1.786590.1	0.668531	-0.743684	0
1	0	1.75964	3.696940.1	0.894798	0.446471	0
2	0	3.16031	3.831880.1	0.635148	0.77239	0
3	0	0.267844	3.143320.1	0.984805	0.173665	0
ITEM: TIMESTEP
35
ITEM: NUMBER OF ATOMS
4
ITEM: BOX BOUNDS
0	4
0	4
0.1 0.1 
ITEM: ATOMS id type x y z vx vy vz
0	0	0.845324	1.786590.1	0.963071	0.269249	0
1	0	2.25964	3.696940.1	0.589526	-0.80775	0
2	0	3.66031	3.831880.1	0.866161	0.499765	0
3	0	0.767844	3.143320.1	0.755881	-0.65471	0
ITEM: TIMESTEP
40
ITEM: NUMBER OF ATOMS
4
ITEM: BOX BOUNDS
0	4
0	4
0.1 0.1 
ITEM: ATOMS id type x y z vx vy vz
0	0	1.34532	1.786590.1	0.863785	-0.503861	0
1	0	2.75964	3.696940.1	0.997474	-0.0710256	0
2	0	0.160306	3.831880.1	0.963705	-0.266968	0
3	0	1.26784	3.143320.1	0.995223	0.0976323	0
ITEM: TIMESTEP
45
ITEM: NUMBER OF ATOMS
4
ITEM: BOX BOUNDS
0	4
0	4
0.1 0.1 
ITEM: ATOMS id type x y z vx vy vz
0	0	1.84532	1.786590.1	0.994255	-0.107038	0
1	0	3.25964	3.696940.1	0.942092	0.335355	0
2	0	0.660306	3.831880.1	0.776509	0.630107	0
3	0	1.76784	3.143320.1	0.772613	0.634878	0
ITEM: TIMESTEP
50
ITEM: NUMBER OF ATOMS
4
ITEM: BOX BOUNDS
0	4
0	4
0.1 0.1 
ITEM: ATOMS id type x y z vx vy vz
0	0	2.34532	1.786590.1	0.893349	0.449364	0
1	0	3.75964	3.696940.1	0.859695	-0.510808	0
2	0	1.16031	3.831880.1	0.779847	0.62597	0
3	0	2.26784	3.143320.1	0.738127	0.674662	0
ITEM: TIMESTEP
55
ITEM: NUMBER OF ATOMS
4
ITEM: BOX BOUNDS
0	4
0	4
0.1 0.1 
ITEM: ATOMS id type x y z vx vy vz
0	0	2.84532	1.786590.1	0.998598	-0.0529403	0
1	0	0.259644	3.696940.1	0.974999	0.22221	0
2	0	1.66031	3.831880.1	0.998878	-0.0473583	0
3	0	2.76784	3.143320.1	0.975522	-0.219904	0
ITEM: TIMESTEP
60
ITEM: NUMBER OF ATOMS
4
ITEM: BOX BOUNDS
0	4
0	4
0.1 0.1 
ITEM: ATOMS id type x y z vx vy vz
0	0	3.34532	1.786590.1	0.989904	0.141742	0
1	0	0.759644	3.696940.1	0.932949	0.360008	0
2	0	2.16031	3.831880.1	0.98981	-0.142395	0
3	0	3.26784	3.143320.1	0.983004	0.183586	0
ITEM: TIMESTEP
65
ITEM: NUMBER OF ATOMS
4
ITEM: BOX BOUNDS
0	4
0	4
0.1 0.1 
ITEM: ATOMS id type x y z vx vy vz
0	0	3.84532	1.786590.1	0.994218	-0.107376	0
1	0	1.25964	3.696940.1	0.580154	-0.814507	0
2	0	2.66031	3.831880.1	0.803916	0.594742	0
3	0	3.76784	3.143320.1	0.999263	0.0383726	0
ITEM: TIMESTEP
70
ITEM: NUMBER OF ATOMS
4
ITEM: BOX BOUNDS
0	4
0	4
0.1 0.1 
ITEM: ATOMS id type x y z vx vy vz
0	0	0.345324	1.786590.1	0.997151	-0.0754333	0
1	0	1.75964	3.696940.1	0.984865	-0.173321	0
2	0	3.16031	3.831880.1	0.923281	0.384125	0
3	0	0.267844	3.143320.1	0.999919	0.0127247	0
ITEM: TIMESTEP
75
ITEM: NUMBER OF ATOMS
4
ITEM: BOX BOUNDS
0	4
0	4
0.1 0.1 
ITEM: ATOMS id type x y z vx vy vz
0	0	0.845324	1.786590.1	0.958824	0.284	0
1	0	2.25964	3.696940.1	0.891563	-0.452896	0
2	0	3.66031	3.831880.1	0.938805	-0.344449	0
3	0	0.767844	3.143320.1	0.781446	-0.623973	0
ITEM: TIMESTEP
80
ITEM: NUMBER OF ATOMS
4
ITEM: BOX BOUNDS
0	4
0	4
0.1 0.1 
ITEM: ATOMS id type x y z vx vy vz
0	0	1.34532	1.786590.1	0.999999	0.00109459	0
1	0	2.75964	3.696940.1	0.944919	0.327304	0
2	0	0.160306	3.831880.1	0.32605	0.945353	0
3	0	1.26784	3.143320.1	0.674091	0.738648	0
ITEM: TIMESTEP
85
ITEM: NUMBER OF ATOMS
4
ITEM: BOX BOUNDS
0	4
0	4
0.1 0.1 
ITEM: ATOMS id type x y z vx vy vz
0	0	1.84532	1.786590.1	0.923365	-0.383924	0
1	0	3.25964	3.696940.1	0.857998	0.513653	0
2	0	0.660306	3.831880.1	0.983729	-0.17966	0
3	0	1.76784	3.143320.1	0.888175	-0.459505	0
ITEM: TIMESTEP
90
ITEM: NUMBER OF ATOMS
4
ITEM: BOX BOUNDS
0	4
0	4
0.1 0.1 
ITEM: ATOMS id type x y z vx vy vz
0	0	2.34532	1.786590.1	0.86004	-0.510227	0
1	0	3.75964	3.696940.1	0.90841	0.41808	0
2	0	1.16031	3.831880.1	0.83755	0.54636	0
3	0	2.26784	3.143320.1	0.746298	-0.665612	0
ITEM: TIMESTEP
95
ITEM: NUMBER OF ATOMS
4
ITEM: BOX BOUNDS
0	4
0	4
0.1 0.1 
ITEM: ATOMS id type x y z vx vy vz
0	0	2.84532	1.786590.1	0.967932	0.251211	0
1	0	0.259644	3.696940.1	0.921391	-0.388636	0
2	0	1.66031	3.831880.1	0.860868	0.508828	0
3	0	2.76784	3.143320.1	0.828467	0.560038	0
ITEM: TIMESTEP
0
ITEM: NUMBER OF ATOMS
4
ITEM: BOX BOUNDS
0	4
0	4
0.1 0.1 
ITEM: ATOMS id type x y z vx vy vz
0	0	3.34532	1.786590.1	0.465595	-0.884998	0
1	0	0.759644	3.696940.1	0.995932	-0.0901034	0
2	0	2.16031	3.831880.1	0.801307	0.598254	0
3	0	3.26784	3.143320.1	0.962331	0.271881	0
ITEM: TIMESTEP
5
ITEM: NUMBER OF ATOMS
4
ITEM: BOX BOUNDS
0	4
0	4
0.1 0.1 
ITEM: ATOMS id type x y z vx vy vz
0	0	3.84532	1.786590.1	0.983431	-0.181283	0
1	0	1.25964	3.696940.1	0.989296	-0.145921	0
2	0	2.66031	3.831880.1	0.8592	0.51164	0
3	0	3.76784	3.143320.1	0.95645	-0.291896	0
ITEM: TIMESTEP
10
ITEM: NUMBER OF ATOMS
4
ITEM: BOX BOUNDS
0	4
0	4
0.1 0.1 
ITEM: ATOMS id type x y z vx vy vz
0	0	0.345324	1.786590.1	0.992307	-0.123801	0
1	0	1.75964	3.696940.1	0.634608	0.772834	0
2	0	3.16031	3.831880.1	0.676489	-0.736453	0
3	0	0.267844	3.143320.1	0.982614	-0.18566	0
ITEM: TIMESTEP
15
ITEM: NUMBER OF ATOMS
4
ITEM: BOX BOUNDS
0	4
0	4
0.1 0.1 
ITEM: ATOMS id type x y z vx vy vz
0	0	0.845324	1.786590.1	0.71215	-0.702027	0
1	0	2.25964	3.696940.1	0.949555	0.313601	0
2	0	3.66031	3.831880.1	0.99796	-0.0638468	0
3	0	0.767844	3.143320.1	0.981317	0.192396	0
ITEM: TIMESTEP
20
ITEM: NUMBER OF ATOMS
4
ITEM: BOX BOUNDS
0	4
0	4
0.1 0.1 
ITEM: ATOMS id type x y z vx vy vz
0	0	1.34532	1.786590.1	0.828853	0.559466	0
1	0	2.75964	3.696940.1	0.886869	-0.46202	0
2	0	0.160306	3.831880.1	0.992255	0.12422	0
3	0	1.26784	3.143320.1	0.916833	-0.39927	0
ITEM: TIMESTEP
25
ITEM: NUMBER OF ATOMS
4
ITEM: BOX BOUNDS
0	4
0	4
0.1 0.1 
ITEM: ATOMS id type x y z vx vy vz
0	0	1.84532	1.786590.1	0.998861	-0.0477092	0
1	0	3.25964	3.696940.1	0.995676	0.0928902	0
2	0	0.660306	3.831880.1	0.983251	-0.182257	0
3	0	1.76784	3.143320.1	0.973051	0.230592	0
ITEM: TIMESTEP
30
ITEM: NUMBER OF ATOMS
4
ITEM: BOX BOUNDS
0	4
0	4
0.1 0.1 
ITEM: ATOMS id type x y z vx vy vz
0	0	2.34532	1.786590.1	0.856476	-0.516186	0
1	0	3.75964	3.696940.1	0.892254	0.451534	0
2	0	1.16031	3.831880.1	0.783286	0.621662	0
3	0	2.26784	3.143320.1	0.990006	-0.141024	0
ITEM: TIMESTEP
35
ITEM: NUMBER OF ATOMS
4
ITEM: BOX BOUNDS
0	4
0	4
0.1 0.1 
ITEM: ATOMS id type x y z vx vy vz
0	0	2.84532	1.786590.1	0.753795	0.65711	0
1	0	0.259644	3.696940.1	0.998308	-0.0581469	0
2	0	1.66031	3.831880.1	0.988216	-0.153064	0
3	0	2.76784	3.143320.1	0.576137	0.817353	0
ITEM: TIMESTEP
40
ITEM: NUMBER OF ATOMS
4
ITEM: BOX BOUNDS
0	4
0	4
0.1 0.1 
ITEM: ATOMS id type x y z vx vy vz
0	0	3.34532	1.786590.1	0.994229	0.107275	0
1	0	0.759644	3.696940.1	0.998153	-0.0607437	0
2	0	2.16031	3.831880.1	0.907344	-0.42039	0
3	0	3.26784	3.143320.1	0.93777	-0.347256	0
ITEM: TIMESTEP
45
ITEM: NUMBER OF ATOMS
4
ITEM: BOX BOUNDS
0	4
0	4
0.1 0.1 
ITEM: ATOMS id type x y z vx vy vz
0	0	3.84532	1.786590.1	0.971456	-0.237219	0
1	0	1.25964	3.696940.1	0.964999	0.262255	0
2	0	2.66031	3.831880.1	0.949934	0.31245	0
3	0	3.76784	3.143320.1	0.790937	-0.611897	0
ITEM: TIMESTEP
50
ITEM: NUMBER OF ATOMS
4
ITEM: BOX BOUNDS
0	4
0	4
0.1 0.1 
ITEM: ATOMS id type x y z vx vy vz
0	0	0.345324	1.786590.1	0.95695	-0.290253	0
1	0	1.75964	3.696940.1	0.948717	0.316126	0
2	0	3.16031	3.831880.1	0.851619	0.524161	0
3	0	0.267844	3.143320.1	0.99594	-0.0900217	0
ITEM: TIMESTEP
55
ITEM: NUMBER OF ATOMS
4
ITEM: BOX BOUNDS
0	4
0	4
0.1 0.1 
ITEM: ATOMS id type x y z vx vy vz
0	0	0.845324	1.786590.1	0.938084	-0.346407	0
1	0	2.25964	3.696940.1	0.835039	0.550191	0
2	0	3.66031	3.831880.1	0.926092	0.377299	0
3	0	0.767844	3.143320.1	0.844913	0.534904	0
ITEM: TIMESTEP
60
ITEM: NUMBER OF ATOMS
4
ITEM: BOX BOUNDS
0	4
0	4
0.1 0.1 
ITEM: ATOMS id type x y z vx vy vz
0	0	1.34532	1.786590.1	0.979977	-0.199112	0
1	0	2.75964	3.696940.1	0.542399	0.840121	0
2	0	0.160306	3.831880.1	0.994306	0.106564	0
3	0	1.26784	3.143320.1	0.869124	-0.494595	0
ITEM: TIMESTEP
65
ITEM: NUMBER OF ATOMS
4
ITEM: BOX BOUNDS
0	4
0	4
0.1 0.1 
ITEM: ATOMS id type x y z vx vy vz
0	0	1.84532	1.786590.1	0.828825	-0.559508	0
1	0	3.25964	3.696940.1	0.863532	0.504295	0
2	0	0.660306	3.831880.1	0.976392	0.216005	0
3	0	1.76784	3.143320.1	0.624685	0.780877	0
ITEM: TIMESTEP
70
ITEM: NUMBER OF ATOMS
4
ITEM: BOX BOUNDS
0	4
0	4
0.1 0.1 
ITEM: ATOMS id type x y z vx vy vz
0	0	2.34532	1.786590.1	0.85015	0.526541	0
1	0	3.75964	3.696940.1	0.988993	-0.147961	0
2	0	1.16031	3.831880.1	0.936209	0.351445	0
3	0	2.26784	3.143320.1	0.981409	0.191928	0
ITEM: TIMESTEP
75
ITEM: NUMBER OF ATOMS
4
ITEM: BOX BOUNDS
0	4
0	4
0.1 0.1 
ITEM: ATOMS id type x y z vx vy vz
0	0	2.84532	1.786590.1	0.824627	-0.565677	0
1	0	0.259644	3.696940.1	0.970307	-0.241878	0
2	0	1.66031	3.831880.1	0.951494	-0.307668	0
3	0	2.76784	3.143320.1	0.760583	-0.64924	0
ITEM: TIMESTEP
80
ITEM: NUMBER OF ATOMS
4
ITEM: BOX BOUNDS
0	4
0	4
0.1 0.1 
ITEM: ATOMS id type x y z vx vy vz
0	0	3.34532	1.786590.1	0.972134	0.234425	0
1	0	0.759644	3.696940.1	0.984894	-0.17316	0
2	0	2.16031	3.831880.1	0.985681	0.168622	0
3	0	3.26784	3.143320.1	0.698651	-0.715462	0
ITEM: TIMESTEP
85
ITEM: NUMBER OF ATOMS
4
ITEM: BOX BOUNDS
0	4
0	4
0.1 0.1 
ITEM: ATOMS id type x y z vx vy vz
0	0	3.84532	1.786590.1	0.892224	0.451593	0
1	0	1.25964	3.696940.1	0.884661	-0.466235	0
2	0	2.66031	3.831880.1	0.991929	-0.126791	0
3	0	3.76784	3.143320.1	0.794661	0.607053	0
ITEM: TIMESTEP
90
ITEM: NUMBER OF ATOMS
4
ITEM: BOX BOUNDS
0	4
0	4
0.1 0.1 
ITEM: ATOMS id type x y z vx vy vz
0	0	0.345324	1.786590.1	0.974254	0.225455	0
1	0	1.75964	3.696940.1	0.744293	-0.667853	0
2	0	3.16031	3.831880.1	0.665039	-0.746809	0
3	0	0.267844	3.143320.1	0.961341	0.275362	0
ITEM: TIMESTEP
95
ITEM: NUMBER OF ATOMS
4
ITEM: BOX BOUNDS
0	4
0	4
0.1 0.1 
ITEM: ATOMS id type x y z vx vy vz
0	0	0.845324	1.786590.1	0.957432	0.288659	0
1	0	2.25964	3.696940.1	0.999908	-0.0135649	0
2	0	3.66031	3.831880.1	0.992646	-0.121052	0
3	0	0.767844	3.143320.1	0.995475	-0.0950189	0
ITEM: TIMESTEP
0
ITEM: NUMBER OF ATOMS
4
ITEM: BOX BOUNDS
0	4
0	4
0.1 0.1 
ITEM: ATOMS id type x y z vx vy vz
0	0	1.34532	1.786590.1	0.985421	0.170132	0
1	0	2.75964	3.696940.1	0.686926	0.726728	0
2	0	0.160306	3.831880.1	0.985478	0.169801	0
3	0	1.26784	3.143320.1	0.792603	0.609739	0
ITEM: TIMESTEP
5
ITEM: NUMBER OF ATOMS
4
ITEM: BOX BOUNDS
0	4
0	4
0.1 0.1 
ITEM: ATOMS id type x y z vx vy vz
0	0	1.84532	1.786590.1	0.998515	-0.0544689	0
1	0	3.25964	3.696940.1	0.925729	0.378189	0
2	0	0.660306	3.831880.1	0.790777	-0.612104	0
3	0	1.76784	3.143320.1	0.999932	0.0116362	0
ITEM: TIMESTEP
10
ITEM: NUMBER OF ATOMS
4
ITEM: BOX BOUNDS
0	4
0	4
0.1 0.1 
ITEM: ATOMS id type x y z vx vy vz
0	0	2.34532	1.786590.1	0.929374	0.36914	0
1	0	3.75964	3.696940.1	0.942343	-0.33465	0
2	0	1.16031	3.831880.1	0.980948	-0.194269	0
3	0	2.26784	3.143320.1	0.987591	0.15705	0
ITEM: TIMESTEP
15
ITEM: NUMBER OF ATOMS
4
ITEM: BOX BOUNDS
0	4
0	4
0.1 0.1 
ITEM: ATOMS id type x y z vx vy vz
0	0	2.84532	1.786590.1	0.99928	-0.0379293	0
1	0	0.259644	3.696940.1	0.934499	-0.355965	0
2	0	1.66031	3.831880.1	0.948203	0.317666	0
3	0	2.76784	3.143320.1	0.951364	0.30807	0
ITEM: TIMESTEP
20
ITEM: NUMBER OF ATOMS
4
ITEM: BOX BOUNDS
0	4
0	4
0.1 0.1 
ITEM: ATOMS id type x y z vx vy vz
0	0	3.34532	1.786590.1	0.872788	-0.488099	0
1	0	0.759644	3.696940.1	0.999509	0.0313238	0
2	0	2.16031	3.831880.1	0.931775	-0.363035	0
3	0	3.26784	3.143320.1	0.935184	0.354161	0
ITEM: TIMESTEP
25
ITEM: NUMBER OF ATOMS
4
ITEM: BOX BOUNDS
0	4
0	4
0.1 0.1 
ITEM: ATOMS id type x y z vx vy vz
0	0	3.84532	1.786590.1	0.957793	-0.287458	0
1	0	1.25964	3.696940.1	0.751249	-0.660019	0
2	0	2.66031	3.831880.1	0.965035	-0.262121	0
3	0	3.76784	3.143320.1	0.980549	0.196273	0
ITEM: TIMESTEP
30
ITEM: NUMBER OF ATOMS
4
ITEM: BOX BOUNDS
0	4
0	4
0.1 0.1 
ITEM: ATOMS id type x y z vx vy vz
0	0	0.345324	1.786590.1	0.728865	0.684658	0
1	0	1.75964	3.696940.1	0.972006	0.234955	0
2	0	3.16031	3.831880.1	0.7798	-0.626028	0
3	0	0.267844	3.143320.1	0.805576	-0.592492	0
ITEM: TIMESTEP
35
ITEM: NUMBER OF ATOMS
4
ITEM: BOX BOUNDS
0	4
0	4
0.1 0.1 
ITEM: ATOMS id type x y z vx vy vz
0	0	0.845324	1.786590.1	0.974039	-0.226381	0
1	0	2.25964	3.696940.1	0.978691	0.205338	0
2	0	3.66031	3.831880.1	0.997729	0.0673619	0
3	0	0.767844	3.143320.1	0.920006	0.391905	0
ITEM: TIMESTEP
40
ITEM: NUMBER OF ATOMS
4
ITEM: BOX BOUNDS
0	4
0	4
0.1 0.1 
ITEM: ATOMS id type x y z vx vy vz
0	0	1.34532	1.786590.1	0.940007	0.341156	0
1	0	2.75964	3.696940.1	0.945508	0.3256	0
2	0	0.160306	3.831880.1	0.998796	-0.0490499	0
3	0	1.26784	3.143320.1	0.819667	-0.572841	0
ITEM: TIMESTEP
45
ITEM: NUMBER OF ATOMS
4
ITEM: BOX BOUNDS
0	4
0	4
0.1 0.1 
ITEM: ATOMS id type x y z vx vy vz
0	0	1.84532	1.786590.1	0.343341	0.939211	0
1	0	3.25964	3.696940.1	0.999486	-0.0320458	0
2	0	0.660306	3.831880.1	0.698208	-0.715895	0
3	0	1.76784	3.143320.1	0.960512	-0.278238	0
ITEM: TIMESTEP
50
ITEM: NUMBER OF ATOMS
4
ITEM: BOX BOUNDS
0	4
0	4
0.1 0.1 
ITEM: ATOMS id type x y z vx vy vz
0	0	2.34532	1.786590.1	0.70332	0.710874	0
1	0	3.75964	3.696940.1	0.843415	0.537262	0
2	0	1.16031	3.831880.1	0.835427	-0.549601	0
3	0	2.26784	3.143320.1	0.968448	-0.249216	0
ITEM: TIMESTEP
55
ITEM: NUMBER OF ATOMS
4
ITEM: BOX BOUNDS
0	4
0	4
0.1 0.1 
ITEM: ATOMS id type x y z vx vy vz
0	0	2.84532	1.786590.1	0.9939	0.110289	0
1	0	0.259644	3.696940.1	0.797746	-0.602993	0
2	0	1.66031	3.831880.1	0.837586	0.546306	0
3	0	2.76784	3.143320.1	0.991296	0.131649	0
ITEM: TIMESTEP
60
ITEM: NUMBER OF ATOMS
4
ITEM: BOX BOUNDS
0	4
0	4
0.1 0.1 
ITEM: ATOMS id type x y z vx vy vz
0	0	3.34532	1.786590.1	0.999708	0.0241748	0
1	0	0.759644	3.696940.1	0.60248	0.798134	0
2	0	2.16031	3.831880.1	0.993833	0.110889	0
3	0	3.26784	3.143320.1	0.871763	0.489927	0
ITEM: TIMESTEP
65
ITEM: NUMBER OF ATOMS
4
ITEM: BOX BOUNDS
0	4
0	4
0.1 0.1 
ITEM: ATOMS id type x y z vx vy vz
0	0	3.84532	1.786590.1	0.999807	-0.0196383	0
1	0	1.25964	3.696940.1	0.978599	0.205777	0
2	0	2.66031	3.831880.1	0.888194	0.459469	0
3	0	3.76784	3.143320.1	0.989738	0.142897	0
ITEM: TIMESTEP
70
ITEM: NUMBER OF ATOMS
4
ITEM: BOX BOUNDS
0	4
0	4
0.1 0.1 
ITEM: ATOMS id type x y z vx vy vz
0	0	0.345324	1.786590.1	0.90135	0.433091	0
1	0	1.75964	3.696940.1	0.712049	-0.70213	0
2	0	3.16031	3.831880.1	0.951474	-0.307728	0
3	0	0.267844	3.143320.1	0.968913	-0.247401	0
ITEM: TIMESTEP
75
ITEM: NUMBER OF ATOMS
4
ITEM: BOX BOUNDS
0	4
0	4
0.1 0.1 
ITEM: ATOMS id type x y z vx vy vz
0	0	0.845324	1.786590.1	0.975288	0.22094	0
1	0	2.25964	3.696940.1	0.830844	0.556505	0
2	0	3.66031	3.831880.1	0.99628	0.0861738	0
3	0	0.767844	3.143320.1	0.980884	0.194593	0
ITEM: TIMESTEP
80
ITEM: NUMBER OF ATOMS
4
ITEM: BOX BOUNDS
0	4
0	4
0.1 0.1 
ITEM: ATOMS id type x y z vx vy vz
0	0	1.34532	1.786590.1	0.826845	-0.562429	0
1	0	2.75964	3.696940.1	0.902975	-0.429693	0
2	0	0.160306	3.831880.1	0.952371	-0.30494	0
3	0	1.26784	3.143320.1	0.996254	-0.0864737	0
ITEM: TIMESTEP
85
ITEM: NUMBER OF ATOMS
4
ITEM: BOX BOUNDS
0	4
0	4
0.1 0.1 
ITEM: ATOMS id type x y z vx vy vz
0	0	1.84532	1.786590.1	0.965703	-0.259648	0
1	0	3.25964	3.696940.1	0.94872	-0.316117	0
2	0	0.660306	3.831880.1	0.845825	-0.533461	0
3	0	1.76784	3.143320.1	0.996242	-0.0866175	0
ITEM: TIMESTEP
90
ITEM: NUMBER OF ATOMS
4
ITEM: BOX BOUNDS
0	4
0	4
0.1 0.1 
ITEM: ATOMS id type x y z vx vy vz
0	0	2.34532	1.786590.1	0.475001	-0.879985	0
1	0	3.75964	3.696940.1	0.885166	0.465276	0
2	0	1.16031	3.831880.1	0.984599	-0.174829	0
3	0	2.26784	3.143320.1	0.969746	-0.244118	0
ITEM: TIMESTEP
95
ITEM: NUMBER OF ATOMS
4
ITEM: BOX BOUNDS
0	4
0	4
0.1 0.1 
ITEM: ATOMS id type x y z vx vy vz
0	0	2.84532	1.786590.1	0.995595	-0.0937631	0
1	0	0.259644	3.696940.1	0.955276	-0.295717	0
2	0	1.66031	3.831880.1	0.836581	-0.547843	0
3	0	2.76784	3.143320.1	0.978139	0.207951	0
ITEM: TIMESTEP
0
ITEM: NUMBER OF ATOMS
4
ITEM: BOX BOUNDS
0	4
0	4
0.1 0.1 
ITEM: ATOMS id type x y z vx vy vz
0	0	3.34532	1.786590.1	0.976072	-0.217449	0
1	0	0.759644	3.696940.1	0.910924	0.412574	0
2	0	2.16031	3.831880.1	0.999906	0.0136967	0
3	0	3.26784	3.143320.1	0.864553	-0.502541	0
ITEM: TIMESTEP
5
ITEM: NUMBER OF ATOMS
4
ITEM: BOX BOUNDS
0	4
0	4
0.1 0.1 
ITEM: ATOMS id type x y z vx vy vz
0	0	3.84532	1.786590.1	0.592914	-0.805266	0
1	0	1.25964	3.696940.1	0.953506	-0.301374	0
2	0	2.66031	3.831880.1	0.921299	-0.388855	0
3	0	3.76784	3.143320.1	0.86456	0.50253	0
ITEM: TIMESTEP
10
ITEM: NUMBER OF ATOMS
4
ITEM: BOX BOUNDS
0	4
0	4
0.1 0.1 
ITEM: ATOMS id type x y z vx vy vz
0	0	0.345324	1.786590.1	0.994356	-0.106094	0
1	0	1.75964	3.696940.1	0.980669	-0.195674	0
2	0	3.16031	3.831880.1	0.99846	0.0554827	0
3	0	0.267844	3.143320.1	0.887769	-0.460289	0
ITEM: TIMESTEP
15
ITEM: NUMBER OF ATOMS
4
ITEM: BOX BOUNDS
0	4
0	4
0.1 0.1 
ITEM: ATOMS id type x y z vx vy vz
0	0	0.845324	1.786590.1	0.974792	0.223114	0
1	0	2.25964	3.696940.1	0.992232	-0.124398	0
2	0	3.66031	3.831880.1	0.937983	-0.346681	0
3	0	0.767844	3.143320.1	0.927027	-0.374994	0
ITEM: TIMESTEP
20
ITEM: NUMBER OF ATOMS
4
ITEM: BOX BOUNDS
0	4
0	4
0.1 0.1 
ITEM: ATOMS id type x y z vx vy vz
0	0	1.34532	1.786590.1	0.992146	0.125088	0
1	0	2.75964	3.696940.1	0.93912	-0.343591	0
2	0	0.160306	3.831880.1	0.943336	-0.331839	0
3	0	1.26784	3.143320.1	0.964059	-0.265687	0
ITEM: TIMESTEP
25
ITEM: NUMBER OF ATOMS
4
ITEM: BOX BOUNDS
0	4
0	4
0.1 0.1 
ITEM: ATOMS id type x y z vx vy vz
0	0	1.84532	1.786590.1	0.997886	-0.0649875	0
1	0	3.25964	3.696940.1	0.998485	0.0550183	0
2	0	0.660306	3.831880.1	0.973415	0.229048	0
3	0	1.76784	3.143320.1	0.822989	0.568057	0
ITEM: TIMESTEP
30
ITEM: NUMBER OF ATOMS
4
ITEM: BOX BOUNDS
0	4
0	4
0.1 0.1 
ITEM: ATOMS id type x y z vx vy vz
0	0	2.34532	1.786590.1	0.971191	-0.238302	0
1	0	3.75964	3.696940.1	0.977981	0.208692	0
2	0	1.16031	3.831880.1	0.531864	0.84683	0
3	0	2.26784	3.143320.1	0.872297	-0.488977	0
ITEM: TIMESTEP
35
ITEM: NUMBER OF ATOMS
4
ITEM: BOX BOUNDS
0	4
0	4
0.1 0.1 
ITEM: ATOMS id type x y z vx vy vz
0	0	2.84532	1.786590.1	0.720628	-0.693322	0
1	0	0.259644	3.696940.1	0.993093	-0.117333	0
2	0	1.66031	3.831880.1	0.854856	-0.518866	0
3	0	2.76784	3.143320.1	0.922413	0.386204	0
ITEM: TIMESTEP
40
ITEM: NUMBER OF ATOMS
4
ITEM: BOX BOUNDS
0	4
0	4
0.1 0.1 
ITEM: ATOMS id type x y z vx vy vz
0	0	3.34532	1.786590.1	0.992977	0.118309	0
1	0	0.759644	3.696940.1	0.983351	-0.181718	0
2	0	2.16031	3.831880.1	0.878776	-0.477234	0
3	0	3.26784	3.143320.1	0.927699	0.373328	0
ITEM: TIMESTEP
45
ITEM: NUMBER OF ATOMS
4
ITEM: BOX BOUNDS
0	4
0	4
0.1 0.1 
ITEM: ATOMS id type x y z vx vy vz
0	0	3.84532	1.786590.1	0.964553	0.263889	0
1	0	1.25964	3.696940.1	0.586638	0.809849	0
2	0	2.66031	3.831880.1	0.982307	0.187279	0
3	0	3.76784	3.143320.1	0.990094	0.140403	0
ITEM: TIMESTEP
50
ITEM: NUMBER OF ATOMS
4
ITEM: BOX BOUNDS
0	4
0	4
0.1 0.1 
ITEM: ATOMS id type x y z vx vy vz
0	0	0.345324	1.786590.1	0.66304	-0.748584	0
1	0	1.75964	3.696940.1	0.999725	0.0234592	0
2	0	3.16031	3.831880.1	0.999423	0.0339619	0
3	0	0.267844	3.143320.1	0.981812	-0.189855	0
ITEM: TIMESTEP
55
ITEM: NUMBER OF ATOMS
4
ITEM: BOX BOUNDS
0	4
0	4
0.1 0.1 
ITEM: ATOMS id type x y z vx vy vz
0	0	0.845324	1.786590.1	0.971448	-0.237251	0
1	0	2.25964	3.696940.1	0.857421	0.514616	0
2	0	3.66031	3.831880.1	0.934804	0.355165	0
3	0	0.767844	3.143320.1	0.76881	0.639478	0
ITEM: TIMESTEP
60
ITEM: NUMBER OF ATOMS
4
ITEM: BOX BOUNDS
0	4
0	4
0.1 0.1 
ITEM: ATOMS id type x y z vx vy vz
0	0	1.34532	1.786590.1	0.605169	-0.796097	0
1	0	2.75964	3.696940.1	0.98109	-0.19355	0
2	0	0.160306	3.831880.1	0.999914	0.0131357	0
3	0	1.26784	3.143320.1	0.91122	0.41192	0
ITEM: TIMESTEP
65
ITEM: NUMBER OF ATOMS
4
ITEM: BOX BOUNDS
0	4
0	4
0.1 0.1 
ITEM: ATOMS id type x y z vx vy vz
0	0	1.84532	1.786590.1	0.918422	0.395603	0
1	0	3.25964	3.696940.1	0.483116	0.875556	0
2	0	0.660306	3.831880.1	0.978357	0.206923	0
3	0	1.76784	3.143320.1	0.997861	-0.0653786	0
ITEM: TIMESTEP
70
ITEM: NUMBER OF ATOMS
4
ITEM: BOX BOUNDS
0	4
0	4
0.1 0.1 
ITEM: ATOMS id type x y z vx vy vz
0	0	2.34532	1.786590.1	0.731036	-0.682339	0
1	0	3.75964	3.696940.1	0.985159	-0.171646	0
2	0	1.16031	3.831880.1	0.785101	-0.619367	0
3	0	2.26784	3.143320.1	0.435064	-0.9004	0
ITEM: TIMESTEP
75
ITEM: NUMBER OF ATOMS
4
ITEM: BOX BOUNDS
0	4
0	4
0.1 0.1 
ITEM: ATOMS id type x y z vx vy vz
0	0	2.84532	1.786590.1	0.941429	-0.337211	0
1	0	0.259644	3.696940.1	0.599734	-0.800199	0
2	0	1.66031	3.831880.1	0.406328	0.913727	0
3	0	2.76784	3.143320.1	0.969323	0.245791	0
ITEM: TIMESTEP
80
ITEM: NUMBER OF ATOMS
4
ITEM: BOX BOUNDS
0	4
0	4
0.1 0.1 
ITEM: ATOMS id type x y z vx vy vz
0	0	3.34532	1.786590.1	0.890278	-0.455417	0
1	0	0.759644	3.696940.1	0.998185	-0.0602284	0
2	0	2.16031	3.831880.1	0.996875	-0.0789945	0
3	0	3.26784	3.143320.1	0.996329	0.0856075	0
ITEM: TIMESTEP
85
ITEM: NUMBER OF ATOMS
4
ITEM: BOX BOUNDS
0	4
0	4
0.1 0.1 
ITEM: ATOMS id type x y z vx vy vz
0	0	3.84532	1.786590.1	0.971247	0.238075	0
1	0	1.25964	3.696940.1	0.920855	0.389905	0
2	0	2.66031	3.831880.1	0.996652	0.081755	0
3	0	3.76784	3.143320.1	0.980268	-0.197671	0
ITEM: TIMESTEP
90
ITEM: NUMBER OF ATOMS
4
ITEM: BOX BOUNDS
0	4
0	4
0.1 0.1 
ITEM: ATOMS id type x y z vx vy vz
0	0	0.345324	1.786590.1	0.986212	0.165487	0
1	0	1.75964	3.696940.1	0.934383	-0.356269	0
2	0	3.16031	3.831880.1	0.950152	0.311788	0
3	0	0.267844	3.143320.1	0.999624	-0.0274307	0
ITEM: TIMESTEP
95
ITEM: NUMBER OF ATOMS
4
ITEM: BOX BOUNDS
0	4
0	4
0.1 0.1 
ITEM: ATOMS id type x y z vx vy vz
0	0	0.845324	1.786590.1	0.991873	-0.127235	0
1	0	2.25964	3.696940.1	0.899681	0.436548	0
2	0	3.66031	3.831880.1	0.448325	-0.89387	0
3	0	0.767844	3.143320.1	0.999935	0.0113992	0
ITEM: TIMESTEP
0
ITEM: NUMBER OF ATOMS
4
ITEM: BOX BOUNDS
0	4
0	4
0.1 0.1 
ITEM: ATOMS id type x y z vx vy vz
0	0	1.34532	1.786590.1	0.979634	0.200793	0
1	0	2.75964	3.696940.1	0.673749	0.738961	0
2	0	0.160306	3.831880.1	0.996042	-0.0888847	0
3	0	1.26784	3.143320.1	0.999628	-0.0272705	0
ITEM: TIMESTEP
5
ITEM: NUMBER OF ATOMS
4
ITEM: BOX BOUNDS
0	4
0	4
0.1 0.1 
ITEM: ATOMS id type x y z vx vy vz
0	0	1.84532	1.786590.1	0.999853	0.0171217	0
1	0	3.25964	3.696940.1	0.996203	0.0870611	0
2	0	0.660306	3.831880.1	0.991703	-0.128548	0
3	0	1.76784	3.143320.1	0.763924	0.645306	0
ITEM: TIMESTEP
10
ITEM: NUMBER OF ATOMS
4
ITEM: BOX BOUNDS
0	4
0	4
0.1 0.1 
ITEM: ATOMS id type x y z vx vy vz
0	0	2.34532	1.786590.1	0.945728	0.324959	0
1	0	3.75964	3.696940.1	0.978759	0.205015	0
2	0	1.16031	3.831880.1	0.750687	0.660658	0
3	0	2.26784	3.143320.1	0.77572	0.631077	0
ITEM: TIMESTEP
15
ITEM: NUMBER OF ATOMS
4
ITEM: BOX BOUNDS
0	4
0	4
0.1 0.1 
ITEM: ATOMS id type x y z vx vy vz
0	0	2.84532	1.786590.1	0.99759	-0.0693814	0
1	0	0.259644	3.696940.1	0.89936	0.437209	0
2	0	1.66031	3.831880.1	0.98064	0.19582	0
3	0	2.76784	3.143320.1	0.911508	0.411283	0
ITEM: TIMESTEP
20
ITEM: NUMBER OF ATOMS
4
ITEM: BOX BOUNDS
0	4
0	4
0.1 0.1 
ITEM: ATOMS id type x y z vx vy vz
0	0	3.34532	1.786590.1	0.96604	0.258394	0
1	0	0.759644	3.696940.1	0.84622	0.532834	0
2	0	2.16031	3.831880.1	0.941409	-0.337267	0
3	0	3.26784	3.143320.1	0.949025	0.3152	0
ITEM: TIMESTEP
25
ITEM: NUMBER OF ATOMS
4
ITEM: BOX BOUNDS
0	4
0	4
0.1 0.1 
ITEM: ATOMS id type x y z vx vy vz
0	0	3.84532	1.786590.1	0.788294	-0.615299	0
1	0	1.25964	3.696940.1	0.787559	-0.61624	0
2	0	2.66031	3.831880.1	0.936014	-0.351962	0
3	0	3.76784	3.143320.1	0.992715	0.120488	0
ITEM: TIMESTEP
30
ITEM: NUMBER OF ATOMS
4
ITEM: BOX BOUNDS
0	4
0	4
0.1 0.1 
ITEM: ATOMS id type x y z vx vy vz
0	0	0.345324	1.786590.1	0.993141	-0.11692	0
1	0	1.75964	3.696940.1	0.425811	-0.904812	0
2	0	3.16031	3.831880.1	0.999199	0.0400166	0
3	0	0.267844	3.143320.1	0.847361	0.531017	0
ITEM: TIMESTEP
35
ITEM: NUMBER OF ATOMS
4
ITEM: BOX BOUNDS
0	4
0	4
0.1 0.1 
ITEM: ATOMS id type x y z vx vy vz
0	0	0.845324	1.786590.1	0.957355	-0.288914	0
1	0	2.25964	3.696940.1	0.906768	0.421629	0
2	0	3.66031	3.831880.1	0.995916	-0.0902812	0
3	0	0.767844	3.143320.1	0.993487	-0.113944	0
ITEM: TIMESTEP
40
ITEM: NUMBER OF ATOMS
4
ITEM: BOX BOUNDS
0	4
0	4
0.1 0.1 
ITEM: ATOMS id type x y z vx vy vz
0	0	1.34532	1.786590.1	0.679107	0.734039	0
1	0	2.75964	3.696940.1	0.98685	0.161641	0
2	0	0.160306	3.831880.1	0.972248	-0.233951	0
3	0	1.26784	3.143320.1	0.966041	-0.258389	0
ITEM: TIMESTEP
45
ITEM: NUMBER OF ATOMS
4
ITEM: BOX BOUNDS
0	4
0	4
0.1 0.1 
ITEM: ATOMS id type x y z vx vy vz
0	0	1.84532	1.786590.1	0.980756	-0.195237	0
1	0	3.25964	3.696940.1	0.89217	-0.451699	0
2	0	0.660306	3.831880.1	0.997899	-0.064794	0
3	0	1.76784	3.143320.1	0.991653	-0.128935	0
ITEM: TIMESTEP
50
ITEM: NUMBER OF ATOMS
4
ITEM: BOX BOUNDS
0	4
0	4
0.1 0.1 
ITEM: ATOMS id type x y z vx vy vz
0	0	2.34532	1.786590.1	0.967779	-0.251802	0
1	0	3.75964	3.696940.1	0.838704	-0.544588	0
2	0	1.16031	3.831880.1	0.960742	0.277445	0
3	0	2.26784	3.143320.1	0.450055	-0.893001	0
ITEM: TIMESTEP
55
ITEM: NUMBER OF ATOMS
4
ITEM: BOX BOUNDS
0	4
0	4
0.1 0.1 
ITEM: ATOMS id type x y z vx vy vz
0	0	2.84532	1.786590.1	0.950966	0.309296	0
1	0	0.259644	3.696940.1	0.704511	0.709693	0
2	0	1.66031	3.831880.1	0.996199	0.0871013	0
3	0	2.76784	3.143320.1	0.997424	-0.0717358	0
ITEM: TIMESTEP
60
ITEM: NUMBER OF ATOMS
4
ITEM: BOX BOUNDS
0	4
0	4
0.1 0.1 
ITEM: ATOMS id type x y z vx vy vz
0	0	3.34532	1.786590.1	0.855452	0.517882	0
1	0	0.759644	3.696940.1	0.999317	-0.0369658	0
2	0	2.16031	3.831880.1	0.884513	0.466516	0
3	0	3.26784	3.143320.1	0.633695	0.773583	0
ITEM: TIMESTEP
65
ITEM: NUMBER OF ATOMS
4
ITEM: BOX BOUNDS
0	4
0	4
0.1 0.1 
ITEM: ATOMS id type x y z vx vy vz
0	0	3.84532	1.786590.1	0.888888	-0.458124	0
1	0	1.25964	3.696940.1	0.661126	0.750275	0
2	0	2.66031	3.831880.1	0.993105	-0.117228	0
3	0	3.76784	3.143320.1	0.955699	-0.294346	0
ITEM: TIMESTEP
70
ITEM: NUMBER OF ATOMS
4
ITEM: BOX BOUNDS
0	4
0	4
0.1 0.1 
ITEM: ATOMS id type x y z vx vy vz
0	0	0.345324	1.786590.1	0.99965	0.0264736	0
1	0	1.75964	3.696940.1	0.944099	0.329663	0
2	0	3.16031	3.831880.1	0.971218	0.238192	0
3	0	0.267844	3.143320.1	0.991021	0.133707	0
ITEM: TIMESTEP
75
ITEM: NUMBER OF ATOMS
4
ITEM: BOX BOUNDS
0	4
0	4
0.1 0.1 
ITEM: ATOMS id type x y z vx vy vz
0	0	0.845324	1.786590.1	0.954017	0.299751	0
1	0	2.25964	3.696940.1	0.989748	0.142825	0
2	0	3.66031	3.831880.1	0.947408	-0.32003	0
3	0	0.767844	3.143320.1	0.936803	-0.349857	0
ITEM: TIMESTEP
80
ITEM: NUMBER OF ATOMS
4
ITEM: BOX BOUNDS
0	4
0	4
0.1 0.1 
ITEM: ATOMS id type x y z vx vy vz
0	0	1.34532	1.786590.1	0.976024	0.217664	0
1	0	2.75964	3.696940.1	0.999995	0.00320843	0
2	0	0.160306	3.831880.1	0.584881	-0.811119	0
3	0	1.26784	3.143320.1	0.945921	0.324398	0
ITEM: TIMESTEP
85
ITEM: NUMBER OF ATOMS
4
ITEM: BOX BOUNDS
0	4
0	4
0.1 0.1 
ITEM: ATOMS id type x y z vx vy vz
0	0	1.84532	1.786590.1	0.962606	0.270907	0
1	0	3.25964	3.696940.1	0.998202	-0.0599429	0
2	0	0.660306	3.831880.1	0.923008	0.384782	0
3	0	1.76784	3.143320.1	0.9442	0.329374	0
ITEM: TIMESTEP
90
ITEM: NUMBER OF ATOMS
4
ITEM: BOX BOUNDS
0	4
0	4
0.1 0.1 
ITEM: ATOMS id type x y z vx vy vz
0	0	2.34532	1.786590.1	0.830303	-0.557312	0
1	0	3.75964	3.696940.1	0.700529	-0.713624	0
2	0	1.16031	3.831880.1	0.984906	-0.173091	0
3	0	2.26784	3.143320.1	0.974692	-0.223554	0
ITEM: TIMESTEP
95
ITEM: NUMBER OF ATOMS
4
ITEM: BOX BOUNDS
0	4
0	4
0.1 0.1 
ITEM: ATOMS id type x y z vx vy vz
0	0	2.84532	1.786590.1	0.622162	0.782888	0
1	0	0.259644	3.696940.1	0.89298	-0.450097	0
2	0	1.66031	3.831880.1	0.999829	0.018502	0
3	0	2.76784	3.143320.1	0.998936	-0.0461257	0
ITEM: TIMESTEP
0
ITEM: NUMBER OF ATOMS
4
ITEM: BOX BOUNDS
0	4
0	4
0.1 0.1 
ITEM: ATOMS id type x y z vx vy vz
0	0	3.34532	1.786590.1	0.915901	-0.401404	0
1	0	0.759644	3.696940.1	0.988187	-0.153252	0
2	0	2.16031	3.831880.1	0.973202	0.229952	0
3	0	3.26784	3.143320.1	0.974191	-0.225724	0
ITEM: TIMESTEP
5
ITEM: NUMBER OF ATOMS
4
ITEM: BOX BOUNDS
0	4
0	4
0.1 0.1 
ITEM: ATOMS id type x y z vx vy vz
0	0	3.84532	1.786590.1	0.604168	-0.796857	0
1	0	1.25964	3.696940.1	0.979879	0.199594	0
2	0	2.66031	3.831880.1	0.874938	0.484235	0
3	0	3.76784	3.143320.1	0.953049	0.302817	0
ITEM: TIMESTEP
10
ITEM: NUMBER OF ATOMS
4
ITEM: BOX BOUNDS
0	4
0	4
0.1 0.1 
ITEM: ATOMS id type x y z vx vy vz
0	0	0.345324	1.786590.1	0.79843	0.602087	0
1	0	1.75964	3.696940.1	0.974574	-0.224067	0
2	0	3.16031	3.831880.1	0.999629	0.0272193	0
3	0	0.267844	3.143320.1	0.965305	0.261123	0
ITEM: TIMESTEP
15
ITEM: NUMBER OF ATOMS
4
ITEM: BOX BOUNDS
0	4
0	4
0.1 0.1 
ITEM: ATOMS id type x y z vx vy vz
0	0	0.845324	1.786590.1	0.986782	0.162054	0
1	0	2.25964	3.696940.1	0.732292	0.680991	0
2	0	3.66031	3.831880.1	0.996057	-0.0887133	0
3	0	0.767844	3.143320.1	0.781829	0.623493	0
ITEM: TIMESTEP
20
ITEM: NUMBER OF ATOMS
4
ITEM: BOX BOUNDS
0	4
0	4
0.1 0.1 
ITEM: ATOMS id type x y z vx vy vz
0	0	1.34532	1.786590.1	0.940095	0.340914	0
1	0	2.75964	3.696940.1	0.908761	0.417317	0
2	0	0.160306	3.831880.1	0.99948	-0.0322327	0
3	0	1.26784	3.143320.1	0.982217	-0.187751	0
ITEM: TIMESTEP